ITEM: TIMESTEP
2000
ITEM: NUMBER OF ATOMS
9
ITEM: BOX BOUNDS ff ff ff
-0.1 0.1
-0.1 0.1
-5e-06 0.300005
ITEM: ATOMS id type type x y z vx vy vz fx fy fz omegax omegay omegaz radius
1 1 1 0 0 1.0 1.0 1.0 -1.05905 0 0 -0.00643398 0 0 0 1. 
2 2 1 0 0 2.0 2.0 2.0 -1.05905 0 0 -0.00643398 0 0 0 1. 
3 3 1 0 0 3.0 3.0 3.0 -1.05905 0 0 -0.00643398 0 0 0 1. 
4 4 1 0 0 4.0 4.0 4.0 -1.05905 0 0 -0.00643398 0 0 0 1. 
5 5 1 0 0 5.0 5.0 5.0 -1.05905 0 0 -0.00643398 0 0 0 1. 
6 6 1 0 0 6.0 6.0 6.0 -1.05905 0 0 -0.00643398 0 0 0 1. 
7 7 1 0 0 7.0 7.0 7.0 -1.05905 0 0 -0.00643398 0 0 0 1. 
8 8 1 0 0 8.0 8.0 8.0 -1.05905 0 0 -0.00643398 0 0 0 1. 
9 9 1 0 0 9.0 9.0 9.0 -1.05905 0 0 -0.00643398 0 0 0 1. 

