ITEM: TIMESTEP
4
ITEM: NUMBER OF ATOMS
3
ITEM: BOX BOUNDS ff ff ff
-0.1 0.1
-0.1 0.1
-5e-06 0.300005
ITEM: ATOMS id type type x y z vx vy vz fx fy fz omegax omegay omegaz radius
1 1 1 1 2 0 .0 .0 -1.05905 0 0 -0.00643398 0 0 0 1. 
2 2 1 1 2 0 .0 .0 -1.05905 0 0 -0.00643398 0 0 0 1. 
3 3 1 1 2 5 .0 .0 -1.05905 0 0 -0.00643398 0 0 0 1. 

