ITEM: TIMESTEP
1000
ITEM: NUMBER OF ATOMS
5
ITEM: BOX BOUNDS ff ff ff
-0.1 0.1
-0.1 0.1
-5e-06 0.300005
ITEM: ATOMS id type type x y z vx vy vz fx fy fz omegax omegay omegaz radius
1 1 1 0 0 1.0 1.0 1.0 -1.05905 0 0 -0.00643398 0 0 0 1. 
2 2 1 0 0 3.0 3.0 3.0 -1.05905 0 0 -0.00643398 0 0 0 1. 
3 3 1 0 0 5.0 5.0 5.0 -1.05905 0 0 -0.00643398 0 0 0 1. 
4 4 1 0 0 7.0 7.0 7.0 -1.05905 0 0 -0.00643398 0 0 0 1. 
5 5 1 0 0 9.0 9.0 9.0 -1.05905 0 0 -0.00643398 0 0 0 1. 

